                               Psi4 1.5 release

  ==> Input File <==

--------------------------------------------------------------------------
molecule {
0 1
 O    0.009400    0.397700    0.000000
 H    0.758600   -0.216900    0.000000
 H   -0.768000   -0.180800    0.000000
}
set {
  geom_maxiter 400
  g_convergence GAU
  dynamic_level 1
}
memory 49GB
set_num_threads(12)
psi4_io.set_default_path("/scratch/bdw2292/Psi4-water_3D")
for _ in range(1):
  try:
    set opt_coordinates both
    optimize('mp2/6-31G*')
    break
  except OptimizationConvergenceError:
    break
  else:
    try:
      set opt_coordinates cartesian
      optimize('mp2/6-31G*')
      break
    except OptimizationConvergenceError:
      pass
clean()
--------------------------------------------------------------------------

    Molecular point group: cs
  Charge       = 0
  Multiplicity = 1
  Basis Set: 6-31G*
    Blend: 6-31G*
  Basis Set: (6-31G* AUX)
    Blend: CC-PVDZ-JKFIT
  @DF-RHF Final Energy:   -76.00974250490955
    Total Energy =                        -76.0097425049095534
  Basis Set: (6-31G* AUX)
    Blend: CC-PVDZ-RI
    Molecular point group: cs
  Basis Set: 6-31G*
    Blend: 6-31G*
  Basis Set: (6-31G* AUX)
    Blend: CC-PVDZ-JKFIT
  Basis Set: (6-31G* AUX)
    Blend: CC-PVDZ-JKFIT
	 Reference Energy          =     -76.0097425049095534 [Eh]
	 Singles Energy            =      -0.0000000000000000 [Eh]
	 Same-Spin Energy          =      -0.0485773583919699 [Eh]
	 Opposite-Spin Energy      =      -0.1408451401582742 [Eh]
	 Correlation Energy        =      -0.1894224985502441 [Eh]
	 Total Energy              =     -76.1991650034597967 [Eh]
	 SCS Total Energy          =     -76.1949491258968123 [Eh]
  Charge       = 0
  Multiplicity = 1
  Basis Set: 6-31G*
    Blend: 6-31G*
  Basis Set: (6-31G* AUX)
    Blend: CC-PVDZ-JKFIT

    Orbital Energies [Eh]
    ---------------------

    Doubly Occupied:

       1Ap   -20.562906     2Ap    -1.336427     3Ap    -0.699760
       4Ap    -0.569987     1App   -0.497350

  @DF-RHF Final Energy:   -76.00977804880142

   => Energetics <=

    Nuclear Repulsion Energy =              9.0878628388931979
    One-Electron Energy =                -122.8624223401727846
    Two-Electron Energy =                  37.7647814524781467
    Total Energy =                        -76.0097780488014365

  Dipole Moment: [D]
     X:    -0.0530      Y:    -2.2433      Z:     0.0000     Total:     2.2439

  Basis Set: (6-31G* AUX)
    Blend: CC-PVDZ-RI
    Molecular point group: cs
  Basis Set: 6-31G*
    Blend: 6-31G*
  Basis Set: (6-31G* AUX)
    Blend: CC-PVDZ-JKFIT
  Basis Set: (6-31G* AUX)
    Blend: CC-PVDZ-JKFIT
	 Reference Energy          =     -76.0097780488014223 [Eh]
	 Singles Energy            =      -0.0000000000000000 [Eh]
	 Same-Spin Energy          =      -0.0485705013398712 [Eh]
	 Opposite-Spin Energy      =      -0.1408168097242546 [Eh]
	 Correlation Energy        =      -0.1893873110641258 [Eh]
	 Total Energy              =     -76.1991653598655461 [Eh]

	 ================> DF-SCS-MP2 Energies <==================
	-----------------------------------------------------------
	 SCS Same-Spin Scale       =       0.3333333333333333 [-]
	 SCS Opposite-Spin Scale   =       1.2000000000000000 [-]
	 SCS Same-Spin Energy      =      -0.0161901671132904 [Eh]
	 SCS Opposite-Spin Energy  =      -0.1689801716691056 [Eh]
	 SCS Correlation Energy    =      -0.1851703387823959 [Eh]
	 SCS Total Energy          =     -76.1949483875838212 [Eh]
	-----------------------------------------------------------

  -Total Gradient:
     Atom            X                  Y                   Z
    ------   -----------------  -----------------  -----------------
       1        0.000001583628     0.000062722318     0.000000000000
       2       -0.000002519473    -0.000031281032     0.000000000000
       3        0.000000935845    -0.000031441286     0.000000000000

  **** Optimization is complete! (in 2 steps) ****
    Final optimized geometry and variables:
    Molecular point group: cs

    Geometry (in Angstrom), charge = 0, multiplicity = 1:

    O            0.001577792539     0.066726967984     0.000000000000
    H            0.750498192689    -0.547544556424     0.000000000000
    H           -0.775538905262    -0.511460847883     0.000000000000

*** Psi4 exiting successfully. Buy a developer a beer!
