                               Psi4 1.5 release

  ==> Input File <==

--------------------------------------------------------------------------
molecule {
0 1
O 0.001577792539 0.066726967984 0.000000000000
H 0.750498192689 -0.547544556424 0.000000000000
H -0.775538905262 -0.511460847883 0.000000000000
no_reorient
}
memory 49GB
set_num_threads(12)
psi4_io.set_default_path("/scratch/bdw2292/Psi4-water_3D")
set freeze_core True
set PROPERTIES_ORIGIN ["COM"]
set cubeprop_tasks ['esp']
set basis 6-311G**
E, wfn = properties('mp2',properties=['dipole'],return_wfn=True)
cubeprop(wfn)
fchk(wfn, "water_3D-dma.fchk")
clean()
--------------------------------------------------------------------------

    Molecular point group: cs
  Charge       = 0
  Multiplicity = 1
  Basis Set: 6-311G**
    Blend: 6-311G**
  Basis Set: (6-311G** AUX)
    Blend: CC-PVTZ-JKFIT

    Orbital Energies [Eh]
    ---------------------

    Doubly Occupied:

       1Ap   -20.547264     2Ap    -1.335996     3Ap    -0.699378
       4Ap    -0.570800     1App   -0.499139

  @DF-RHF Final Energy:   -76.04541999622712

   => Energetics <=

    Nuclear Repulsion Energy =              9.0878628388950720
    One-Electron Energy =                -122.9614117453250230
    Two-Electron Energy =                  37.8281289102028211
    Total Energy =                        -76.0454199962271247
  Basis Set: (6-311G** AUX)
    Blend: CC-PVTZ-RI
    Molecular point group: c1

    Geometry (in Angstrom), charge = 0, multiplicity = 1:

       Center              X                  Y                   Z               Mass
    ------------   -----------------  -----------------  -----------------  -----------------
         O            0.001577792539     0.066726967984     0.000000000000    15.994914619570
         H            0.750498192689    -0.547544556424     0.000000000000     1.007825032230
         H           -0.775538905262    -0.511460847883     0.000000000000     1.007825032230

  Basis Set: 6-311G**
    Blend: 6-311G**
  Basis Set: (6-311G** AUX)
    Blend: CC-PVTZ-JKFIT
	 Reference Energy          =     -76.0454199962271247 [Eh]
	 Singles Energy            =      -0.0000000000000000 [Eh]
	 Same-Spin Energy          =      -0.0546718973120399 [Eh]
	 Opposite-Spin Energy      =      -0.1635301889291126 [Eh]
	 Correlation Energy        =      -0.2182020862411525 [Eh]
	 Total Energy              =     -76.2636220824682738 [Eh]

	 ================> DF-SCS-MP2 Energies <==================
	-----------------------------------------------------------
	 SCS Same-Spin Scale       =       0.3333333333333333 [-]
	 SCS Opposite-Spin Scale   =       1.2000000000000000 [-]
	 SCS Same-Spin Energy      =      -0.0182239657706800 [Eh]
	 SCS Opposite-Spin Energy  =      -0.1962362267149351 [Eh]
	 SCS Correlation Energy    =      -0.2144601924856151 [Eh]
	 SCS Total Energy          =     -76.2598801887127422 [Eh]
	-----------------------------------------------------------

  Dipole Moment: [D]
     X:    -0.0493      Y:    -2.0864      Z:     0.0000     Total:     2.0869

  Basis Set: 6-311G**
    Blend: 6-311G**
*** Psi4 exiting successfully. Buy a developer a beer!
