                               Psi4 1.5 release

  ==> Input File <==

--------------------------------------------------------------------------
molecule {
0 1
O 0.001577792539 0.066726967984 0.000000000000
H 0.750498192689 -0.547544556424 0.000000000000
H -0.775538905262 -0.511460847883 0.000000000000
}
memory 49GB
set_num_threads(12)
psi4_io.set_default_path("/scratch/bdw2292/Psi4-water_3D")
set maxiter 500
set freeze_core True
set PROPERTIES_ORIGIN ["COM"]
set cubeprop_tasks ['esp']
set basis aug-cc-pVTZ
E, wfn = properties('mp2',properties=['dipole'],return_wfn=True)
cubeprop(wfn)
fchk(wfn, "water_3D-esp.fchk")
oeprop(wfn,"GRID_ESP","WIBERG_LOWDIN_INDICES","MULLIKEN_CHARGES")
clean()
--------------------------------------------------------------------------

    Molecular point group: cs
  Charge       = 0
  Multiplicity = 1
  Basis Set: AUG-CC-PVTZ
    Blend: AUG-CC-PVTZ
  Basis Set: (AUG-CC-PVTZ AUX)
    Blend: AUG-CC-PVTZ-JKFIT

    Orbital Energies [Eh]
    ---------------------

    Doubly Occupied:

       1Ap   -20.569431     2Ap    -1.348167     3Ap    -0.710650
       4Ap    -0.583783     1App   -0.509586

  @DF-RHF Final Energy:   -76.05958651915147

   => Energetics <=

    Nuclear Repulsion Energy =              9.0878628388950720
    One-Electron Energy =                -122.8516615393430129
    Two-Electron Energy =                  37.7042121812964695
    Total Energy =                        -76.0595865191514662
  Basis Set: (AUG-CC-PVTZ AUX)
    Blend: AUG-CC-PVTZ-RI
    Molecular point group: c1

    Geometry (in Angstrom), charge = 0, multiplicity = 1:

       Center              X                  Y                   Z               Mass
    ------------   -----------------  -----------------  -----------------  -----------------
         O            0.001577792539     0.066726967984     0.000000000000    15.994914619570
         H            0.750498192689    -0.547544556424     0.000000000000     1.007825032230
         H           -0.775538905262    -0.511460847883     0.000000000000     1.007825032230

  Basis Set: AUG-CC-PVTZ
    Blend: AUG-CC-PVTZ
  Basis Set: (AUG-CC-PVTZ AUX)
    Blend: AUG-CC-PVTZ-JKFIT
	 Reference Energy          =     -76.0595865191514662 [Eh]
	 Singles Energy            =      -0.0000000000000000 [Eh]
	 Same-Spin Energy          =      -0.0653698161892608 [Eh]
	 Opposite-Spin Energy      =      -0.2038847445168901 [Eh]
	 Correlation Energy        =      -0.2692545607061509 [Eh]
	 Total Energy              =     -76.3288410798576109 [Eh]

	 ================> DF-SCS-MP2 Energies <==================
	-----------------------------------------------------------
	 SCS Same-Spin Scale       =       0.3333333333333333 [-]
	 SCS Opposite-Spin Scale   =       1.2000000000000000 [-]
	 SCS Same-Spin Energy      =      -0.0217899387297536 [Eh]
	 SCS Opposite-Spin Energy  =      -0.2446616934202681 [Eh]
	 SCS Correlation Energy    =      -0.2664516321500217 [Eh]
	 SCS Total Energy          =     -76.3260381513014892 [Eh]
	-----------------------------------------------------------

  Dipole Moment: [D]
     X:    -0.0441      Y:    -1.8643      Z:    -0.0000     Total:     1.8649

  Basis Set: AUG-CC-PVTZ
    Blend: AUG-CC-PVTZ

  Mulliken Charges: (a.u.)
   Center  Symbol    Alpha    Beta     Spin     Total
       1     O     4.21976  4.21976  0.00000 -0.43952
       2     H     0.39012  0.39012  0.00000  0.21976
       3     H     0.39012  0.39012  0.00000  0.21976

   Total alpha =  5.00000, Total beta =  5.00000, Total charge = -0.00000

*** Psi4 exiting successfully. Buy a developer a beer!
