 Gaussian 09, Revision A.02,
 Gaussian 09:  EM64L-G09RevA.02 11-Jun-2009

 ---------------------------------------------------------------------
 #P wB97XD/6-311+G* SP SCF=(qc,maxcycle=800) Pop=NBORead MaxDisk=200GB
 ---------------------------------------------------------------------

 ---------------------------------------------------------------
 methanol Rotatable Bond SP Calculation on node37.bme.utexas.edu
 ---------------------------------------------------------------
 Symbolic Z-matrix:
 Charge =  0 Multiplicity = 1

                         Standard orientation:
 ---------------------------------------------------------------------
 Center     Atomic      Atomic             Coordinates (Angstroms)
 Number     Number       Type             X           Y           Z
 ---------------------------------------------------------------------
      1          8           0       -0.748877   -0.128277   -0.006843
      2          6           0        0.663952    0.022521    0.004082
      3          1           0        1.056835   -0.022146    1.030792
      4          1           0        0.973638    0.960325   -0.482585
      5          1           0        1.126653   -0.801233   -0.558904
      6          1           0       -1.149817    0.754138    0.040948
 ---------------------------------------------------------------------

 SCF Done:  E(RwB97XD) =  -115.710816821     a.u. after    8 cycles

 The electronic state is 1-A.
 Alpha  occ. eigenvalues --  -19.24974 -10.32625  -1.12604  -0.78266  -0.60129
 Alpha  occ. eigenvalues --   -0.53090  -0.51729  -0.42361  -0.36350
 Alpha virt. eigenvalues --    0.06412   0.08318   0.10548   0.10676   0.20253
 Alpha virt. eigenvalues --    0.22289   0.22873   0.24493   0.27711   0.28294
 Alpha virt. eigenvalues --    0.29167   0.31933   0.37285   0.48494   0.50281

 Mulliken atomic charges:
              1
     1  O   -0.432347
     2  C   -0.622873
     3  H    0.231627
     4  H    0.214788
     5  H    0.248013
     6  H    0.360792
 Sum of Mulliken atomic charges =   0.00000

 Dipole moment (field-independent basis, Debye):
    X=              0.9712    Y=              1.8089    Z=              0.0498  Tot=              2.0537
 Quadrupole moment (field-independent basis, Debye-Ang):
   XX=            -13.0353   YY=            -12.3194   ZZ=            -13.8804
   XY=             -2.5531   XZ=             -0.2254   YZ=              0.0548

 Normal termination of Gaussian 09 at Fri Jan  8 13:52:09 2021.
