 Gaussian 09, Revision A.02,
 Gaussian 09:  EM64L-G09RevA.02 11-Jun-2009

 ---------------------------------------------------------------------
 #P wB97XD/6-311+G* SP SCF=(qc,maxcycle=800) Pop=NBORead MaxDisk=200GB
 ---------------------------------------------------------------------

 ---------------------------------------------------------------
 methanol Rotatable Bond SP Calculation on node37.bme.utexas.edu
 ---------------------------------------------------------------
 Symbolic Z-matrix:
 Charge =  0 Multiplicity = 1

                         Standard orientation:
 ---------------------------------------------------------------------
 Center     Atomic      Atomic             Coordinates (Angstroms)
 Number     Number       Type             X           Y           Z
 ---------------------------------------------------------------------
      1          8           0       -0.749207   -0.128584    0.007128
      2          6           0        0.664825    0.012408    0.002640
      3          1           0        1.142321   -0.849848   -0.485781
      4          1           0        1.050877    0.139913    1.025065
      5          1           0        0.956845    0.908394   -0.566658
      6          1           0       -1.145338    0.755763   -0.045485
 ---------------------------------------------------------------------

 SCF Done:  E(RwB97XD) =  -115.710394230     a.u. after    8 cycles

 The electronic state is 1-A.
 Alpha  occ. eigenvalues --  -19.24942 -10.32668  -1.12593  -0.78251  -0.60221
 Alpha  occ. eigenvalues --   -0.53101  -0.51730  -0.42295  -0.36345
 Alpha virt. eigenvalues --    0.06355   0.08336   0.10478   0.10782   0.20000
 Alpha virt. eigenvalues --    0.22329   0.23079   0.24454   0.27744   0.28342
 Alpha virt. eigenvalues --    0.29131   0.31837   0.37369   0.48661   0.49922

 Mulliken atomic charges:
              1
     1  O   -0.433221
     2  C   -0.621152
     3  H    0.248592
     4  H    0.231124
     5  H    0.213301
     6  H    0.361357
 Sum of Mulliken atomic charges =   0.00000

 Dipole moment (field-independent basis, Debye):
    X=              0.9836    Y=              1.8227    Z=             -0.1577  Tot=              2.0771
 Quadrupole moment (field-independent basis, Debye-Ang):
   XX=            -13.0661   YY=            -12.3055   ZZ=            -13.8857
   XY=             -2.5628   XZ=              0.0512   YZ=              0.0004

 Normal termination of Gaussian 09 at Fri Jan  8 13:56:06 2021.
