 Gaussian 09, Revision A.02,
 Gaussian 09:  EM64L-G09RevA.02 11-Jun-2009

 ---------------------------------------------------------------------
 #P wB97XD/6-311+G* SP SCF=(qc,maxcycle=800) Pop=NBORead MaxDisk=200GB
 ---------------------------------------------------------------------

 ---------------------------------------------------------------
 methanol Rotatable Bond SP Calculation on node37.bme.utexas.edu
 ---------------------------------------------------------------
 Symbolic Z-matrix:
 Charge =  0 Multiplicity = 1

                         Standard orientation:
 ---------------------------------------------------------------------
 Center     Atomic      Atomic             Coordinates (Angstroms)
 Number     Number       Type             X           Y           Z
 ---------------------------------------------------------------------
      1          8           0       -0.748971   -0.129136   -0.000254
      2          6           0        0.664372    0.017922   -0.005864
      3          1           0        0.971124    0.954423   -0.496990
      4          1           0        1.145550   -0.843327   -0.492438
      5          1           0        1.037026    0.059105    1.028451
      6          1           0       -1.148166    0.755360   -0.001807
 ---------------------------------------------------------------------

 SCF Done:  E(RwB97XD) =  -115.710387251     a.u. after    8 cycles

 The electronic state is 1-A.
 Alpha  occ. eigenvalues --  -19.24951 -10.32654  -1.12600  -0.78259  -0.60248
 Alpha  occ. eigenvalues --   -0.52673  -0.52014  -0.42576  -0.36162
 Alpha virt. eigenvalues --    0.06371   0.08320   0.10531   0.10727   0.20119
 Alpha virt. eigenvalues --    0.22329   0.23004   0.24438   0.27740   0.28303
 Alpha virt. eigenvalues --    0.29148   0.31954   0.37336   0.48855   0.49774

 Mulliken atomic charges:
              1
     1  O   -0.431163
     2  C   -0.623761
     3  H    0.215084
     4  H    0.248715
     5  H    0.230586
     6  H    0.360539
 Sum of Mulliken atomic charges =   0.00000

 Dipole moment (field-independent basis, Debye):
    X=              0.9758    Y=              1.8176    Z=             -0.0361  Tot=              2.0633
 Quadrupole moment (field-independent basis, Debye-Ang):
   XX=            -13.0426   YY=            -12.2117   ZZ=            -13.9924
   XY=             -2.5758   XZ=             -0.0879   YZ=              0.0269

 Normal termination of Gaussian 09 at Fri Jan  8 13:48:07 2021.
