 Gaussian 09, Revision A.02,
 Gaussian 09:  EM64L-G09RevA.02 11-Jun-2009

 ---------------------------------------------------------------------
 #P wB97XD/6-311+G* SP SCF=(qc,maxcycle=800) Pop=NBORead MaxDisk=200GB
 ---------------------------------------------------------------------

 ---------------------------------------------------------------
 methanol Rotatable Bond SP Calculation on node37.bme.utexas.edu
 ---------------------------------------------------------------
 Symbolic Z-matrix:
 Charge =  0 Multiplicity = 1

                         Standard orientation:
 ---------------------------------------------------------------------
 Center     Atomic      Atomic             Coordinates (Angstroms)
 Number     Number       Type             X           Y           Z
 ---------------------------------------------------------------------
      1          8           0        0.749214   -0.128577    0.007130
      2          6           0       -0.664802    0.012401    0.002646
      3          1           0       -1.050948    0.139923    1.025023
      4          1           0       -1.142318   -0.849854   -0.485771
      5          1           0       -0.956947    0.908357   -0.566667
      6          1           0        1.145316    0.755788   -0.045497
 ---------------------------------------------------------------------

 SCF Done:  E(RwB97XD) =  -115.710394416     a.u. after    8 cycles

 The electronic state is 1-A.
 Alpha  occ. eigenvalues --  -19.24943 -10.32668  -1.12594  -0.78251  -0.60221
 Alpha  occ. eigenvalues --   -0.53100  -0.51730  -0.42295  -0.36345
 Alpha virt. eigenvalues --    0.06355   0.08336   0.10478   0.10782   0.20000
 Alpha virt. eigenvalues --    0.22329   0.23079   0.24454   0.27745   0.28342
 Alpha virt. eigenvalues --    0.29131   0.31837   0.37369   0.48661   0.49922

 Mulliken atomic charges:
              1
     1  O   -0.433195
     2  C   -0.621177
     3  H    0.231126
     4  H    0.248588
     5  H    0.213300
     6  H    0.361357
 Sum of Mulliken atomic charges =   0.00000

 Dipole moment (field-independent basis, Debye):
    X=             -0.9836    Y=              1.8227    Z=             -0.1577  Tot=              2.0771
 Quadrupole moment (field-independent basis, Debye-Ang):
   XX=            -13.0660   YY=            -12.3056   ZZ=            -13.8858
   XY=              2.5627   XZ=             -0.0513   YZ=              0.0004

 Normal termination of Gaussian 09 at Fri Jan  8 13:46:07 2021.
