 Gaussian 09, Revision A.02,
 Gaussian 09:  EM64L-G09RevA.02 11-Jun-2009

 ---------------------------------------------------------------------
 #P wB97XD/6-311+G* SP SCF=(qc,maxcycle=800) Pop=NBORead MaxDisk=200GB
 ---------------------------------------------------------------------

 ---------------------------------------------------------------
 methanol Rotatable Bond SP Calculation on node37.bme.utexas.edu
 ---------------------------------------------------------------
 Symbolic Z-matrix:
 Charge =  0 Multiplicity = 1

                         Standard orientation:
 ---------------------------------------------------------------------
 Center     Atomic      Atomic             Coordinates (Angstroms)
 Number     Number       Type             X           Y           Z
 ---------------------------------------------------------------------
      1          8           0        0.748973   -0.129130   -0.000236
      2          6           0       -0.664419    0.017930   -0.005860
      3          1           0       -1.145421   -0.843372   -0.492492
      4          1           0       -0.971008    0.954451   -0.497055
      5          1           0       -1.037183    0.059130    1.028393
      6          1           0        1.148342    0.755255   -0.001803
 ---------------------------------------------------------------------

 SCF Done:  E(RwB97XD) =  -115.710390262     a.u. after    8 cycles

 The electronic state is 1-A.
 Alpha  occ. eigenvalues --  -19.24950 -10.32655  -1.12598  -0.78260  -0.60247
 Alpha  occ. eigenvalues --   -0.52673  -0.52014  -0.42574  -0.36162
 Alpha virt. eigenvalues --    0.06371   0.08321   0.10531   0.10727   0.20119
 Alpha virt. eigenvalues --    0.22328   0.23004   0.24439   0.27739   0.28303
 Alpha virt. eigenvalues --    0.29149   0.31955   0.37336   0.48855   0.49774

 Mulliken atomic charges:
              1
     1  O   -0.431242
     2  C   -0.623707
     3  H    0.248718
     4  H    0.215079
     5  H    0.230598
     6  H    0.360554
 Sum of Mulliken atomic charges =   0.00000

 Dipole moment (field-independent basis, Debye):
    X=             -0.9757    Y=              1.8175    Z=             -0.0361  Tot=              2.0632
 Quadrupole moment (field-independent basis, Debye-Ang):
   XX=            -13.0419   YY=            -12.2119   ZZ=            -13.9923
   XY=              2.5760   XZ=              0.0876   YZ=              0.0269

 Normal termination of Gaussian 09 at Fri Jan  8 13:54:08 2021.
