 Gaussian 09, Revision A.02,
 Gaussian 09:  EM64L-G09RevA.02 11-Jun-2009

 ---------------------------------------------------------------------
 #P wB97XD/6-311+G* SP SCF=(qc,maxcycle=800) Pop=NBORead MaxDisk=200GB
 ---------------------------------------------------------------------

 ---------------------------------------------------------------
 methanol Rotatable Bond SP Calculation on node37.bme.utexas.edu
 ---------------------------------------------------------------
 Symbolic Z-matrix:
 Charge =  0 Multiplicity = 1

                         Standard orientation:
 ---------------------------------------------------------------------
 Center     Atomic      Atomic             Coordinates (Angstroms)
 Number     Number       Type             X           Y           Z
 ---------------------------------------------------------------------
      1          8           0       -0.748708    0.128686    0.000001
      2          6           0        0.663788   -0.023455   -0.000024
      3          1           0        1.006607   -0.550056   -0.903618
      4          1           0        1.006597   -0.550076    0.903684
      5          1           0        1.141417    0.967272    0.000057
      6          1           0       -1.147686   -0.755897    0.000007
 ---------------------------------------------------------------------

 SCF Done:  E(RwB97XD) =  -115.711665551     a.u. after    8 cycles

 The electronic state is 1-A.
 Alpha  occ. eigenvalues --  -19.24994 -10.32634  -1.12620  -0.78268  -0.59987
 Alpha  occ. eigenvalues --   -0.53307  -0.51697  -0.42283  -0.36428
 Alpha virt. eigenvalues --    0.06402   0.08314   0.10589   0.10719   0.20723
 Alpha virt. eigenvalues --    0.22622   0.23400   0.24089   0.27784   0.28392
 Alpha virt. eigenvalues --    0.29160   0.30170   0.37754   0.48064   0.50102

 Mulliken atomic charges:
              1
     1  O   -0.442011
     2  C   -0.611104
     3  H    0.219460
     4  H    0.219422
     5  H    0.251251
     6  H    0.362981
 Sum of Mulliken atomic charges =   0.00000

 Dipole moment (field-independent basis, Debye):
    X=              0.9871    Y=             -1.7639    Z=             -0.0001  Tot=              2.0213
 Quadrupole moment (field-independent basis, Debye-Ang):
   XX=            -13.0133   YY=            -12.3265   ZZ=            -13.8823
   XY=              2.6463   XZ=             -0.0001   YZ=              0.0001

 Normal termination of Gaussian 09 at Fri Jan  8 13:51:09 2021.
