 Gaussian 09, Revision A.02,
 Gaussian 09:  EM64L-G09RevA.02 11-Jun-2009

 ---------------------------------------------------------------
 #P opt=(ModRedundant,maxcycle=3,Loose) MP2/6-31G* MaxDisk=200GB
 ---------------------------------------------------------------

 ----------------------------------------------------------
 methanol Gaussian OPT Calculation on node37.bme.utexas.edu
 ----------------------------------------------------------
 Symbolic Z-matrix:
 Charge =  0 Multiplicity = 1

 SCF Done:  E(RHF) =  -115.034590312     A.U. after   11 cycles
 E2 =    -0.3114172481D+00 EUMP2 =    -0.11534600756039D+03
 SCF Done:  E(RHF) =  -115.034225109     A.U. after    9 cycles
 E2 =    -0.3118984233D+00 EUMP2 =    -0.11534612353220D+03
 Optimization completed.
    -- Stationary point found.

                         Standard orientation:
 ---------------------------------------------------------------------
 Center     Atomic      Atomic             Coordinates (Angstroms)
 Number     Number       Type             X           Y           Z
 ---------------------------------------------------------------------
      1          8           0        0.749531    0.122589   -0.000002
      2          6           0       -0.664447   -0.019643    0.000001
      3          1           0       -1.034255   -0.542785    0.891370
      4          1           0       -1.034254   -0.542822   -0.891347
      5          1           0       -1.076406    0.989749   -0.000020
      6          1           0        1.135352   -0.766996    0.000010
 ---------------------------------------------------------------------

 The electronic state is 1-A.
 Alpha  occ. eigenvalues --  -20.56001 -11.27220  -1.34902  -0.92189  -0.68444
 Alpha  occ. eigenvalues --   -0.61541  -0.58740  -0.49892  -0.44501
 Alpha virt. eigenvalues --    0.22289   0.27616   0.31943   0.32725   0.38071
 Alpha virt. eigenvalues --    0.76249   0.77739   0.78820   1.04725   1.12132
 Alpha virt. eigenvalues --    1.14586   1.17312   1.20564   1.25526   1.26602

 Mulliken atomic charges:
              1
     1  O   -0.727159
     2  C   -0.168437
     3  H    0.142668
     4  H    0.142668
     5  H    0.175659
     6  H    0.434602
 Sum of Mulliken atomic charges =   0.00000

 Dipole moment (field-independent basis, Debye):
    X=             -0.9825    Y=             -1.6688    Z=              0.0000  Tot=              1.9365
 Quadrupole moment (field-independent basis, Debye-Ang):
   XX=            -12.6807   YY=            -12.0084   ZZ=            -13.6890
   XY=             -2.3480   XZ=              0.0000   YZ=              0.0000

 Normal termination of Gaussian 09 at Fri Jan  8 10:44:51 2021.
