 Gaussian 09, Revision A.02,
 Gaussian 09:  EM64L-G09RevA.02 11-Jun-2009

 ---------------------------------------------------------------------
 #P wB97XD/6-311+G* SP SCF=(qc,maxcycle=800) Pop=NBORead MaxDisk=200GB
 ---------------------------------------------------------------------

 ---------------------------------------------------------------
 methanol Rotatable Bond SP Calculation on node37.bme.utexas.edu
 ---------------------------------------------------------------
 Symbolic Z-matrix:
 Charge =  0 Multiplicity = 1

                         Standard orientation:
 ---------------------------------------------------------------------
 Center     Atomic      Atomic             Coordinates (Angstroms)
 Number     Number       Type             X           Y           Z
 ---------------------------------------------------------------------
      1          8           0        0.748937    0.129323   -0.006363
      2          6           0       -0.664484   -0.015080   -0.004660
      3          1           0       -1.002244   -0.632396   -0.851008
      4          1           0       -1.158683    0.967453   -0.024497
      5          1           0       -0.987955   -0.523355    0.916324
      6          1           0        1.144291   -0.755803    0.038039
 ---------------------------------------------------------------------

 SCF Done:  E(RwB97XD) =  -115.711096604     a.u. after    8 cycles

 The electronic state is 1-A.
 Alpha  occ. eigenvalues --  -19.24964 -10.32676  -1.12613  -0.78258  -0.60147
 Alpha  occ. eigenvalues --   -0.52963  -0.51910  -0.42481  -0.36237
 Alpha virt. eigenvalues --    0.06344   0.08323   0.10537   0.10819   0.20811
 Alpha virt. eigenvalues --    0.22573   0.23106   0.24187   0.27845   0.28355
 Alpha virt. eigenvalues --    0.29140   0.30034   0.37753   0.48357   0.49688

 Mulliken atomic charges:
              1
     1  O   -0.440568
     2  C   -0.611100
     3  H    0.219017
     4  H    0.251986
     5  H    0.218036
     6  H    0.362629
 Sum of Mulliken atomic charges =   0.00000

 Dipole moment (field-independent basis, Debye):
    X=             -0.9962    Y=             -1.7755    Z=              0.0989  Tot=              2.0383
 Quadrupole moment (field-independent basis, Debye-Ang):
   XX=            -13.0324   YY=            -12.2164   ZZ=            -13.9936
   XY=             -2.6558   XZ=              0.1251   YZ=             -0.0258

 Normal termination of Gaussian 09 at Fri Jan  8 13:47:07 2021.
