 Gaussian 09, Revision A.02,
 Gaussian 09:  EM64L-G09RevA.02 11-Jun-2009

 ---------------------------------------------------------------------
 #P wB97XD/6-311+G* SP SCF=(qc,maxcycle=800) Pop=NBORead MaxDisk=200GB
 ---------------------------------------------------------------------

 ---------------------------------------------------------------
 methanol Rotatable Bond SP Calculation on node37.bme.utexas.edu
 ---------------------------------------------------------------
 Symbolic Z-matrix:
 Charge =  0 Multiplicity = 1

                         Standard orientation:
 ---------------------------------------------------------------------
 Center     Atomic      Atomic             Coordinates (Angstroms)
 Number     Number       Type             X           Y           Z
 ---------------------------------------------------------------------
      1          8           0       -0.748974    0.129311   -0.006364
      2          6           0        0.664486   -0.015083   -0.004658
      3          1           0        1.158627    0.967534   -0.024533
      4          1           0        1.002387   -0.632390   -0.850940
      5          1           0        0.988071   -0.523275    0.916290
      6          1           0       -1.144209   -0.755858    0.038043
 ---------------------------------------------------------------------

 SCF Done:  E(RwB97XD) =  -115.711097679     a.u. after    8 cycles

 The electronic state is 1-A.
 Alpha  occ. eigenvalues --  -19.24965 -10.32676  -1.12613  -0.78258  -0.60147
 Alpha  occ. eigenvalues --   -0.52962  -0.51909  -0.42482  -0.36238
 Alpha virt. eigenvalues --    0.06344   0.08323   0.10537   0.10819   0.20811
 Alpha virt. eigenvalues --    0.22572   0.23106   0.24188   0.27844   0.28355
 Alpha virt. eigenvalues --    0.29139   0.30033   0.37753   0.48357   0.49687

 Mulliken atomic charges:
              1
     1  O   -0.440554
     2  C   -0.611132
     3  H    0.251976
     4  H    0.219031
     5  H    0.218059
     6  H    0.362621
 Sum of Mulliken atomic charges =   0.00000

 Dipole moment (field-independent basis, Debye):
    X=              0.9964    Y=             -1.7756    Z=              0.0989  Tot=              2.0385
 Quadrupole moment (field-independent basis, Debye-Ang):
   XX=            -13.0326   YY=            -12.2162   ZZ=            -13.9938
   XY=              2.6553   XZ=             -0.1251   YZ=             -0.0258

 Normal termination of Gaussian 09 at Fri Jan  8 13:55:06 2021.
