 Gaussian 09, Revision A.02,
 Gaussian 09:  EM64L-G09RevA.02 11-Jun-2009

 ---------------------------------------------------------------------
 #P wB97XD/6-311+G* SP SCF=(qc,maxcycle=800) Pop=NBORead MaxDisk=200GB
 ---------------------------------------------------------------------

 ---------------------------------------------------------------
 methanol Rotatable Bond SP Calculation on node37.bme.utexas.edu
 ---------------------------------------------------------------
 Symbolic Z-matrix:
 Charge =  0 Multiplicity = 1

                         Standard orientation:
 ---------------------------------------------------------------------
 Center     Atomic      Atomic             Coordinates (Angstroms)
 Number     Number       Type             X           Y           Z
 ---------------------------------------------------------------------
      1          8           0       -0.749273   -0.128298    0.000037
      2          6           0        0.665059    0.011217   -0.000020
      3          1           0        1.102374   -0.437069   -0.904493
      4          1           0        1.102401   -0.436834    0.904571
      5          1           0        0.945800    1.075986   -0.000155
      6          1           0       -1.146746    0.757002   -0.000097
 ---------------------------------------------------------------------

 SCF Done:  E(RwB97XD) =  -115.709677327     a.u. after    8 cycles

 The electronic state is 1-A.
 Alpha  occ. eigenvalues --  -19.24916 -10.32658  -1.12577  -0.78242  -0.60302
 Alpha  occ. eigenvalues --   -0.53108  -0.51644  -0.42198  -0.36387
 Alpha virt. eigenvalues --    0.06360   0.08346   0.10423   0.10743   0.19200
 Alpha virt. eigenvalues --    0.22304   0.23497   0.24324   0.27701   0.28535
 Alpha virt. eigenvalues --    0.29140   0.33133   0.36957   0.49420   0.49751

 Mulliken atomic charges:
              1
     1  O   -0.425363
     2  C   -0.633228
     3  H    0.241351
     4  H    0.241348
     5  H    0.215945
     6  H    0.359946
 Sum of Mulliken atomic charges =   0.00000

 Dipole moment (field-independent basis, Debye):
    X=              0.9697    Y=              1.8777    Z=             -0.0003  Tot=              2.1133
 Quadrupole moment (field-independent basis, Debye-Ang):
   XX=            -13.0960   YY=            -12.3648   ZZ=            -13.8091
   XY=             -2.4691   XZ=              0.0004   YZ=             -0.0002

 Normal termination of Gaussian 09 at Fri Jan  8 13:57:06 2021.
