 Gaussian 09, Revision A.02,
 Gaussian 09:  EM64L-G09RevA.02 11-Jun-2009

 ---------------------------------------------------------------------
 #P wB97XD/6-311+G* SP SCF=(qc,maxcycle=800) Pop=NBORead MaxDisk=200GB
 ---------------------------------------------------------------------

 ---------------------------------------------------------------
 methanol Rotatable Bond SP Calculation on node37.bme.utexas.edu
 ---------------------------------------------------------------
 Symbolic Z-matrix:
 Charge =  0 Multiplicity = 1

                         Standard orientation:
 ---------------------------------------------------------------------
 Center     Atomic      Atomic             Coordinates (Angstroms)
 Number     Number       Type             X           Y           Z
 ---------------------------------------------------------------------
      1          8           0        0.748874   -0.128278   -0.006841
      2          6           0       -0.663960    0.022523    0.004076
      3          1           0       -0.973602    0.960353   -0.482588
      4          1           0       -1.056850   -0.022129    1.030811
      5          1           0       -1.126665   -0.801240   -0.558904
      6          1           0        1.149882    0.754099    0.040948
 ---------------------------------------------------------------------

 SCF Done:  E(RwB97XD) =  -115.710816909     a.u. after    8 cycles

 The electronic state is 1-A.
 Alpha  occ. eigenvalues --  -19.24973 -10.32626  -1.12604  -0.78266  -0.60129
 Alpha  occ. eigenvalues --   -0.53089  -0.51730  -0.42360  -0.36350
 Alpha virt. eigenvalues --    0.06412   0.08318   0.10548   0.10676   0.20253
 Alpha virt. eigenvalues --    0.22289   0.22873   0.24493   0.27711   0.28294
 Alpha virt. eigenvalues --    0.29167   0.31933   0.37285   0.48494   0.50281

 Mulliken atomic charges:
              1
     1  O   -0.432363
     2  C   -0.622856
     3  H    0.214786
     4  H    0.231620
     5  H    0.248014
     6  H    0.360799
 Sum of Mulliken atomic charges =   0.00000

 Dipole moment (field-independent basis, Debye):
    X=             -0.9711    Y=              1.8089    Z=              0.0498  Tot=              2.0537
 Quadrupole moment (field-independent basis, Debye-Ang):
   XX=            -13.0350   YY=            -12.3196   ZZ=            -13.8805
   XY=              2.5532   XZ=              0.2253   YZ=              0.0548

 Normal termination of Gaussian 09 at Fri Jan  8 13:50:10 2021.
