 Gaussian 09, Revision A.02,
 Gaussian 09:  EM64L-G09RevA.02 11-Jun-2009

 ---------------------------------------------------------------------
 #P wB97XD/6-311+G* SP SCF=(qc,maxcycle=800) Pop=NBORead MaxDisk=200GB
 ---------------------------------------------------------------------

 ---------------------------------------------------------------
 methanol Rotatable Bond SP Calculation on node37.bme.utexas.edu
 ---------------------------------------------------------------
 Symbolic Z-matrix:
 Charge =  0 Multiplicity = 1

                         Standard orientation:
 ---------------------------------------------------------------------
 Center     Atomic      Atomic             Coordinates (Angstroms)
 Number     Number       Type             X           Y           Z
 ---------------------------------------------------------------------
      1          8           0        0.748891   -0.128431    0.006137
      2          6           0       -0.664295    0.020494   -0.005977
      3          1           0       -1.107815   -0.520779   -0.854818
      4          1           0       -0.960618    1.080769   -0.033100
      5          1           0       -1.088174   -0.408950    0.913778
      6          1           0        1.151253    0.753445   -0.039089
 ---------------------------------------------------------------------

 SCF Done:  E(RwB97XD) =  -115.709853310     a.u. after    8 cycles

 The electronic state is 1-A.
 Alpha  occ. eigenvalues --  -19.24937 -10.32630  -1.12588  -0.78254  -0.60294
 Alpha  occ. eigenvalues --   -0.52730  -0.51879  -0.42504  -0.36205
 Alpha virt. eigenvalues --    0.06397   0.08324   0.10498   0.10656   0.19484
 Alpha virt. eigenvalues --    0.22223   0.23146   0.24441   0.27689   0.28457
 Alpha virt. eigenvalues --    0.29175   0.33119   0.36845   0.49273   0.50099

 Mulliken atomic charges:
              1
     1  O   -0.422623
     2  C   -0.636086
     3  H    0.241390
     4  H    0.217850
     5  H    0.240763
     6  H    0.358706
 Sum of Mulliken atomic charges =   0.00000

 Dipole moment (field-independent basis, Debye):
    X=             -0.9568    Y=              1.8561    Z=             -0.0866  Tot=              2.0900
 Quadrupole moment (field-independent basis, Debye-Ang):
   XX=            -13.0621   YY=            -12.2665   ZZ=            -13.9236
   XY=              2.4793   XZ=             -0.1211   YZ=             -0.0235

 Normal termination of Gaussian 09 at Fri Jan  8 13:53:09 2021.
