 Gaussian 09, Revision A.02,
 Gaussian 09:  EM64L-G09RevA.02 11-Jun-2009

 ----------------------------------------------------------------------
 #P MP2/aug-cc-pVTZ Sp Density=MP2 SCF=Save MaxDisk=200GB MaxDisk=200GB
 ----------------------------------------------------------------------

 ---------------------------------------------------------
 methanol Gaussian SP Calculation on node37.bme.utexas.edu
 ---------------------------------------------------------
 Symbolic Z-matrix:
 Charge =  0 Multiplicity = 1

                         Standard orientation:
 ---------------------------------------------------------------------
 Center     Atomic      Atomic             Coordinates (Angstroms)
 Number     Number       Type             X           Y           Z
 ---------------------------------------------------------------------
      1          8           0        0.749531    0.122589   -0.000002
      2          6           0       -0.664447   -0.019643    0.000000
      3          1           0       -1.034255   -0.542785    0.891370
      4          1           0       -1.034254   -0.542822   -0.891347
      5          1           0       -1.076407    0.989749   -0.000020
      6          1           0        1.135352   -0.766996    0.000010
 ---------------------------------------------------------------------

 SCF Done:  E(RHF) =  -115.091343297     A.U. after   10 cycles
 E2 =    -0.4375080586D+00 EUMP2 =    -0.11552885135610D+03

 The electronic state is 1-A.
 Alpha  occ. eigenvalues --  -20.56112 -11.27275  -1.35609  -0.92377  -0.68962
 Alpha  occ. eigenvalues --   -0.61879  -0.59229  -0.50403  -0.45159
 Alpha virt. eigenvalues --    0.02844   0.04292   0.04668   0.05301   0.09907
 Alpha virt. eigenvalues --    0.11645   0.12919   0.13997   0.16531   0.17289
 Alpha virt. eigenvalues --    0.18288   0.21081   0.21539   0.26823   0.26888

 Mulliken atomic charges:
              1
     1  O   -0.453133
     2  C   -0.721022
     3  H    0.315770
     4  H    0.315772
     5  H    0.343476
     6  H    0.199138
 Sum of Mulliken atomic charges =   0.00000

 Dipole moment (field-independent basis, Debye):
    X=             -0.8689    Y=             -1.4591    Z=              0.0000  Tot=              1.6982
 Quadrupole moment (field-independent basis, Debye-Ang):
   XX=            -13.2507   YY=            -12.3398   ZZ=            -14.0400
   XY=             -2.2278   XZ=              0.0000   YZ=              0.0000

 Normal termination of Gaussian 09 at Fri Jan  8 10:47:42 2021.
