 Gaussian 09, Revision A.02,
 Gaussian 09:  EM64L-G09RevA.02 11-Jun-2009

 ------------------------------------------------------------------
 #P opt=(ModRedundant,maxcycle=3,Loose) wB97XD/6-31G* MaxDisk=200GB
 ------------------------------------------------------------------

 ----------------------------------------------------------
 methanol Gaussian OPT Calculation on node37.bme.utexas.edu
 ----------------------------------------------------------
 Symbolic Z-matrix:
 Charge =  0 Multiplicity = 1

 SCF Done:  E(RwB97XD) =  -115.676152779     A.U. after   15 cycles
 SCF Done:  E(RwB97XD) =  -115.677042088     A.U. after   15 cycles
 SCF Done:  E(RwB97XD) =  -115.677133859     A.U. after    9 cycles
 Optimization completed.
    -- Stationary point found.

                         Standard orientation:
 ---------------------------------------------------------------------
 Center     Atomic      Atomic             Coordinates (Angstroms)
 Number     Number       Type             X           Y           Z
 ---------------------------------------------------------------------
      1          8           0        0.746152    0.122152   -0.000001
      2          6           0       -0.659980   -0.019687    0.000000
      3          1           0       -1.030589   -0.543576    0.893053
      4          1           0       -1.030588   -0.543617   -0.893032
      5          1           0       -1.078782    0.989156   -0.000018
      6          1           0        1.130627   -0.761056    0.000009
 ---------------------------------------------------------------------

 The electronic state is 1-A.
 Alpha  occ. eigenvalues --  -19.26248 -10.33316  -1.11370  -0.77452  -0.59119
 Alpha  occ. eigenvalues --   -0.52166  -0.50542  -0.41363  -0.34863
 Alpha virt. eigenvalues --    0.16714   0.22013   0.25282   0.26093   0.29383
 Alpha virt. eigenvalues --    0.62950   0.65750   0.66758   0.88400   0.94903
 Alpha virt. eigenvalues --    0.96788   1.00212   1.04756   1.07008   1.11261

 Mulliken atomic charges:
              1
     1  O   -0.628732
     2  C   -0.250344
     3  H    0.145907
     4  H    0.145906
     5  H    0.179974
     6  H    0.407288
 Sum of Mulliken atomic charges =   0.00000

 Dipole moment (field-independent basis, Debye):
    X=             -0.7945    Y=             -1.5671    Z=              0.0000  Tot=              1.7570
 Quadrupole moment (field-independent basis, Debye-Ang):
   XX=            -12.4897   YY=            -11.8956   ZZ=            -13.5118
   XY=             -2.2793   XZ=              0.0000   YZ=              0.0000

 Normal termination of Gaussian 09 at Fri Jan  8 10:43:47 2021.
