 Gaussian 09, Revision A.02,
 Gaussian 09:  EM64L-G09RevA.02 11-Jun-2009

 ----------------------------------------------------------
 #P MP2/6-311G** Sp Density=MP2 MaxDisk=200GB MaxDisk=200GB
 ----------------------------------------------------------

 ---------------------------------------------------------
 methanol Gaussian SP Calculation on node37.bme.utexas.edu
 ---------------------------------------------------------
 Symbolic Z-matrix:
 Charge =  0 Multiplicity = 1

                         Standard orientation:
 ---------------------------------------------------------------------
 Center     Atomic      Atomic             Coordinates (Angstroms)
 Number     Number       Type             X           Y           Z
 ---------------------------------------------------------------------
      1          8           0        0.749531    0.122589   -0.000002
      2          6           0       -0.664447   -0.019643    0.000000
      3          1           0       -1.034255   -0.542785    0.891370
      4          1           0       -1.034254   -0.542822   -0.891347
      5          1           0       -1.076407    0.989749   -0.000020
      6          1           0        1.135352   -0.766996    0.000010
 ---------------------------------------------------------------------

 SCF Done:  E(RHF) =  -115.074272322     A.U. after   11 cycles
 E2 =    -0.3619311377D+00 EUMP2 =    -0.11543620346020D+03

 The electronic state is 1-A.
 Alpha  occ. eigenvalues --  -20.54609 -11.27077  -1.34901  -0.92131  -0.68414
 Alpha  occ. eigenvalues --   -0.61527  -0.58733  -0.49924  -0.44645
 Alpha virt. eigenvalues --    0.15335   0.18721   0.22550   0.23142   0.34220
 Alpha virt. eigenvalues --    0.45446   0.47903   0.57860   0.68040   0.72588
 Alpha virt. eigenvalues --    0.78392   0.79678   0.89935   1.02380   1.05275

 Mulliken atomic charges:
              1
     1  O   -0.412170
     2  C   -0.082712
     3  H    0.079937
     4  H    0.079937
     5  H    0.103085
     6  H    0.231922
 Sum of Mulliken atomic charges =   0.00000

 Dipole moment (field-independent basis, Debye):
    X=             -0.8257    Y=             -1.5337    Z=              0.0000  Tot=              1.7419
 Quadrupole moment (field-independent basis, Debye-Ang):
   XX=            -12.8373   YY=            -12.1950   ZZ=            -13.7595
   XY=             -2.2300   XZ=              0.0000   YZ=              0.0000

 Normal termination of Gaussian 09 at Fri Jan  8 10:46:55 2021.
