                               Psi4 1.3.2 release

  ==> Input File <==

--------------------------------------------------------------------------
molecule {
0 1
C           -0.000083863354     0.000081788773     0.000094927784
H           -0.676517863354     0.853272788773    -0.085717072216
H           -0.394037863354    -0.836372211227    -0.581791072216
H            0.086307136646    -0.293963211227     1.048556927784
H            0.985247136646     0.276088788773    -0.382179072216
}
memory 700MB
set_num_threads(1)
psi4_io.set_default_path("/scratch/bdw2292/Psi4-methane")
set maxiter 300
set freeze_core True
set PROPERTIES_ORIGIN ["COM"]
E, wfn = properties('mp2/aug-cc-pVTZ',properties=['dipole'],return_wfn=True)
oeprop(wfn,"GRID_ESP","WIBERG_LOWDIN_INDICES","MULLIKEN_CHARGES")
clean()
--------------------------------------------------------------------------

    Molecular point group: c1
  Charge       = 0
  Multiplicity = 1
  Basis Set: AUG-CC-PVTZ
    Blend: AUG-CC-PVTZ
  Basis Set: (AUG-CC-PVTZ AUX)
    Blend: AUG-CC-PVTZ-JKFIT

    Orbital Energies [Eh]
    ---------------------

    Doubly Occupied:

       1A    -11.208481     2A     -0.941391     3A     -0.544128
       4A     -0.543859     5A     -0.543732

  @DF-RHF Final Energy:   -40.21342537044148

   => Energetics <=

    Nuclear Repulsion Energy =             13.4067911466704537
    One-Electron Energy =                 -79.6772501040981496
    Two-Electron Energy =                  26.0570335869862078
    Total Energy =                        -40.2134253704414846
  Basis Set: (AUG-CC-PVTZ AUX)
    Blend: AUG-CC-PVTZ-RI
    Molecular point group: c1

    Geometry (in Angstrom), charge = 0, multiplicity = 1:

       Center              X                  Y                   Z               Mass
    ------------   -----------------  -----------------  -----------------  -----------------
         C           -0.000083863354     0.000081788773     0.000094927784    12.000000000000
         H           -0.676517863354     0.853272788773    -0.085717072216     1.007825032230
         H           -0.394037863354    -0.836372211227    -0.581791072216     1.007825032230
         H            0.086307136646    -0.293963211227     1.048556927784     1.007825032230
         H            0.985247136646     0.276088788773    -0.382179072216     1.007825032230

  Basis Set: AUG-CC-PVTZ
    Blend: AUG-CC-PVTZ
  Basis Set: (AUG-CC-PVTZ AUX)
    Blend: AUG-CC-PVTZ-JKFIT
	 Reference Energy          =     -40.2134253704414846 [Eh]
	 Singles Energy            =      -0.0000000000000000 [Eh]
	 Same-Spin Energy          =      -0.0366151130481007 [Eh]
	 Opposite-Spin Energy      =      -0.1642864279307728 [Eh]
	 Correlation Energy        =      -0.2009015409788735 [Eh]
	 Total Energy              =     -40.4143269114203605 [Eh]

	 ================> DF-SCS-MP2 Energies <==================
	-----------------------------------------------------------
	 SCS Same-Spin Scale       =       0.3333333333333333 [-]
	 SCS Opposite-Spin Scale   =       1.2000000000000000 [-]
	 SCS Same-Spin Energy      =      -0.0122050376827002 [Eh]
	 SCS Opposite-Spin Energy  =      -0.1971437135169274 [Eh]
	 SCS Correlation Energy    =      -0.2093487511996276 [Eh]
	 SCS Total Energy          =     -40.4227741216411118 [Eh]
	-----------------------------------------------------------

  Dipole Moment: [D]
     X:     0.0003      Y:    -0.0002      Z:    -0.0004     Total:     0.0006

  Mulliken Charges: (a.u.)
   Center  Symbol    Alpha    Beta     Spin     Total
       1     C     3.62203  3.62203  0.00000 -1.24405
       2     H     0.34438  0.34438  0.00000  0.31124
       3     H     0.34458  0.34458  0.00000  0.31084
       4     H     0.34444  0.34444  0.00000  0.31112
       5     H     0.34457  0.34457  0.00000  0.31085

   Total alpha =  5.00000, Total beta =  5.00000, Total charge = -0.00000

*** Psi4 exiting successfully. Buy a developer a beer!
