                               Psi4 1.3.2 release

  ==> Input File <==

--------------------------------------------------------------------------
molecule {
0 1
 C   -0.000084    0.000082    0.000095
 H   -0.676518    0.853273   -0.085717
 H   -0.394038   -0.836372   -0.581791
 H    0.086307   -0.293963    1.048557
 H    0.985247    0.276089   -0.382179
}
set {
  geom_maxiter 3
  g_convergence GAU_LOOSE
}
memory 700MB
set_num_threads(1)
psi4_io.set_default_path("/scratch/bdw2292/Psi4-methane")
for _ in range(1):
  try:
    optimize('mp2/6-31G*')
    break
  except OptimizationConvergenceError:
    try:
      set opt_coordinates cartesian
      optimize('mp2/6-31G*')
      break
    except OptimizationConvergenceError:
      pass
clean()
--------------------------------------------------------------------------

    Molecular point group: c1
  Charge       = 0
  Multiplicity = 1
  Basis Set: 6-31G*
    Blend: 6-31G*
  Basis Set: (6-31G* AUX)
    Blend: CC-PVDZ-JKFIT

    Orbital Energies [Eh]
    ---------------------

    Doubly Occupied:

       1A    -11.209167     2A     -0.941005     3A     -0.544172
       4A     -0.543903     5A     -0.543776

  @DF-RHF Final Energy:   -40.19498071715022

   => Energetics <=

    Nuclear Repulsion Energy =             13.4067911466704537
    One-Electron Energy =                 -79.6394976173485247
    Two-Electron Energy =                  26.0377257535278517
    Total Energy =                        -40.1949807171502158

  Dipole Moment: [D]
     X:     0.0003      Y:    -0.0001      Z:    -0.0004     Total:     0.0005

  Basis Set: (6-31G* AUX)
    Blend: CC-PVDZ-RI
    Molecular point group: c1
  Basis Set: 6-31G*
    Blend: 6-31G*
  Basis Set: (6-31G* AUX)
    Blend: CC-PVDZ-JKFIT
  Basis Set: (6-31G* AUX)
    Blend: CC-PVDZ-JKFIT
	 Reference Energy          =     -40.1949807171502158 [Eh]
	 Singles Energy            =      -0.0000000000000000 [Eh]
	 Same-Spin Energy          =      -0.0279459264622101 [Eh]
	 Opposite-Spin Energy      =      -0.1140118093120649 [Eh]
	 Correlation Energy        =      -0.1419577357742750 [Eh]
	 Total Energy              =     -40.3369384529244925 [Eh]

	 ================> DF-SCS-MP2 Energies <==================
	-----------------------------------------------------------
	 SCS Same-Spin Scale       =       0.3333333333333333 [-]
	 SCS Opposite-Spin Scale   =       1.2000000000000000 [-]
	 SCS Same-Spin Energy      =      -0.0093153088207367 [Eh]
	 SCS Opposite-Spin Energy  =      -0.1368141711744778 [Eh]
	 SCS Correlation Energy    =      -0.1461294799952145 [Eh]
	 SCS Total Energy          =     -40.3411101971454329 [Eh]
	-----------------------------------------------------------

  -Total Gradient:
     Atom            X                  Y                   Z
    ------   -----------------  -----------------  -----------------
       1       -0.000159059828     0.000240022377     0.000174078582
       2       -0.001137198735     0.001365892958    -0.000237310982
       3       -0.000663303454    -0.001443516744    -0.001092562558
       4        0.000269456505    -0.000541857430     0.001790777364
       5        0.001690105511     0.000379458840    -0.000634982407

  **** Optimization is complete! (in 1 steps) ****
    Final optimized geometry and variables:
    Molecular point group: c1

    Geometry (in Angstrom), charge = 0, multiplicity = 1:

    C           -0.000083863354     0.000081788773     0.000094927784
    H           -0.676517863354     0.853272788773    -0.085717072216
    H           -0.394037863354    -0.836372211227    -0.581791072216
    H            0.086307136646    -0.293963211227     1.048556927784
    H            0.985247136646     0.276088788773    -0.382179072216

*** Psi4 exiting successfully. Buy a developer a beer!
