                               Psi4 1.3.2 release

  ==> Input File <==

--------------------------------------------------------------------------
molecule {
0 1
 C   -0.022100    0.003200    0.016500
 H   -0.669000    0.889400   -0.100900
 H   -0.377800   -0.857800   -0.588300
 H    0.096400   -0.315100    1.063800
 H    0.972500    0.280300   -0.391100
}
set {
  geom_maxiter 3
  g_convergence GAU_LOOSE
}
memory 700MB
set_num_threads(1)
psi4_io.set_default_path("/scratch/bdw2292/Psi4-methane")
for _ in range(1):
  try:
    optimize('wb97x-d/6-31G*')
    break
  except OptimizationConvergenceError:
    try:
      set opt_coordinates cartesian
      optimize('wb97x-d/6-31G*')
      break
    except OptimizationConvergenceError:
      pass
clean()
--------------------------------------------------------------------------

    Molecular point group: c1
  Charge       = 0
  Multiplicity = 1
  Basis Set: 6-31G*
    Blend: 6-31G*
  Basis Set: (6-31G* AUX)
    Blend: CC-PVDZ-JKFIT
  @DF-RKS Final Energy:   -40.50060382851984
    Total Energy =                        -40.5006038285198429
    Molecular point group: c1
  Basis Set: 6-31G*
    Blend: 6-31G*
  Basis Set: (6-31G* AUX)
    Blend: CC-PVDZ-JKFIT
  Basis Set: 6-31G*
    Blend: 6-31G*
  Basis Set: (6-31G* AUX)
    Blend: CC-PVDZ-JKFIT
  @DF-RKS Final Energy:   -40.50184962226142
    Total Energy =                        -40.5018496222614246
  Basis Set: 6-31G*
    Blend: 6-31G*
  Basis Set: (6-31G* AUX)
    Blend: CC-PVDZ-JKFIT
  Charge       = 0
  Multiplicity = 1
  Basis Set: 6-31G*
    Blend: 6-31G*
  Basis Set: (6-31G* AUX)
    Blend: CC-PVDZ-JKFIT

    Orbital Energies [Eh]
    ---------------------

    Doubly Occupied:

       1A    -10.275284     2A     -0.787352     3A     -0.472717
       4A     -0.472491     5A     -0.472394

  @DF-RKS Final Energy:   -40.50188791036701

   => Energetics <=

    Nuclear Repulsion Energy =             13.4067910372637744
    One-Electron Energy =                 -79.7873140060632409
    Two-Electron Energy =                  30.4654092746608001
    DFT Exchange-Correlation Energy =      -4.5863719640942318
    Empirical Dispersion Energy =          -0.0004022521341100
    VV10 Nonlocal Energy =                  0.0000000000000000
    Total Energy =                        -40.5018879103670102

  Dipole Moment: [D]
     X:     0.0006      Y:    -0.0003      Z:    -0.0006     Total:     0.0009

    Molecular point group: c1
  Basis Set: 6-31G*
    Blend: 6-31G*
  Basis Set: (6-31G* AUX)
    Blend: CC-PVDZ-JKFIT

  -Total Gradient:
     Atom            X                  Y                   Z
    ------   -----------------  -----------------  -----------------
       1       -0.000088684055     0.000251909296     0.000122163033
       2        0.000124714477    -0.000204718270    -0.000107142809
       3        0.000100873410     0.000078333190    -0.000008989567
       4        0.000155924899     0.000058127017    -0.000129204856
       5       -0.000149177858    -0.000136679611     0.000032077196

  **** Optimization is complete! (in 3 steps) ****
    Final optimized geometry and variables:
    Molecular point group: c1

    Geometry (in Angstrom), charge = 0, multiplicity = 1:

    C           -0.000083764083     0.000081651469     0.000094976277
    H           -0.676518000448     0.853273320810    -0.085717298014
    H           -0.394037952365    -0.836371696876    -0.581791466330
    H            0.086306793126    -0.293962567185     1.048557272102
    H            0.985246524273     0.276088733191    -0.382179374017

*** Psi4 exiting successfully. Buy a developer a beer!
