                               Psi4 1.3.2 release

  ==> Input File <==

--------------------------------------------------------------------------
molecule {
0 1
C           -0.000083863354     0.000081788773     0.000094927784
H           -0.676517863354     0.853272788773    -0.085717072216
H           -0.394037863354    -0.836372211227    -0.581791072216
H            0.086307136646    -0.293963211227     1.048556927784
H            0.985247136646     0.276088788773    -0.382179072216
}
memory 700MB
set_num_threads(1)
psi4_io.set_default_path("/scratch/bdw2292/Psi4-methane")
set maxiter 300
set freeze_core True
set PROPERTIES_ORIGIN ["COM"]
E, wfn = properties('hf/MINIX',properties=['dipole'],return_wfn=True)
oeprop(wfn,"WIBERG_LOWDIN_INDICES","MULLIKEN_CHARGES")
clean()
--------------------------------------------------------------------------

    Molecular point group: c1

    Geometry (in Angstrom), charge = 0, multiplicity = 1:

       Center              X                  Y                   Z               Mass
    ------------   -----------------  -----------------  -----------------  -----------------
         C           -0.000083863354     0.000081788773     0.000094927784    12.000000000000
         H           -0.676517863354     0.853272788773    -0.085717072216     1.007825032230
         H           -0.394037863354    -0.836372211227    -0.581791072216     1.007825032230
         H            0.086307136646    -0.293963211227     1.048556927784     1.007825032230
         H            0.985247136646     0.276088788773    -0.382179072216     1.007825032230

  Charge       = 0
  Multiplicity = 1
  Basis Set: MINIX
    Blend: MINIX
  Basis Set: (MINIX AUX)
    Blend: DEF2-SVP-JKFIT

    Orbital Energies [Eh]
    ---------------------

    Doubly Occupied:

       1A    -11.132807     2A     -0.940471     3A     -0.544872
       4A     -0.544619     5A     -0.544500

  @DF-RHF Final Energy:   -39.93738585460405

   => Energetics <=

    Nuclear Repulsion Energy =             13.4067911466704537
    One-Electron Energy =                 -79.2738135188429425
    Two-Electron Energy =                  25.9296365175684400
    Total Energy =                        -39.9373858546040452

  Dipole Moment: [D]
     X:     0.0006      Y:    -0.0006      Z:    -0.0007     Total:     0.0011

  Mulliken Charges: (a.u.)
   Center  Symbol    Alpha    Beta     Spin     Total
       1     C     3.25003  3.25003  0.00000 -0.50006
       2     H     0.43748  0.43748  0.00000  0.12504
       3     H     0.43750  0.43750  0.00000  0.12499
       4     H     0.43748  0.43748  0.00000  0.12504
       5     H     0.43751  0.43751  0.00000  0.12499

   Total alpha =  5.00000, Total beta =  5.00000, Total charge = -0.00000

*** Psi4 exiting successfully. Buy a developer a beer!
